{
  "id": "xray_tube_thermal_capacity",
  "title": "X-ray Tube Thermal Capacity and Focal Spot Heat Limitations",
  "domain": "tube_physics",
  "keywords": [
    "열용량", "thermal capacity", "heat capacity",
    "heat unit", "HU", "열단위",
    "초점 열부하", "focal spot heat loading",
    "양극 열용량", "anode heat capacity",
    "냉각률", "cooling rate",
    "소초점 제한", "small focal spot limitation",
    "mA 제한", "tube current limitation",
    "확대촬영 한계", "magnification limitation",
    "노출 시간", "exposure time"
  ],
  "content": {
    "heat_unit_fundamentals": {
      "definition": "Heat Unit(HU)는 X선관에서 발생하는 열량의 단위",
      "formulas": {
        "single_phase": {
          "formula": "HU = kVp × mA × s",
          "waveform_factor": 0.71,
          "note": "단상 발생기 기준"
        },
        "three_phase": {
          "formula": "HU = 1.35 × kVp × mA × s",
          "waveform_factor": 0.96,
          "note": "3상 발생기는 1.35배 더 많은 열 발생"
        },
        "joules_conversion": {
          "formula": "Heat (J) = w × kVp × mAs",
          "note": "w = waveform factor (단상 0.71, 3상 0.96, 정전압 1.0)"
        }
      },
      "power_formula": "Power (W) = w × kVp × mA",
      "source_ref": "radiopaedia_tube_rating"
    },
    "focal_spot_heat_capacity": {
      "critical_area": "초점 영역(focal track)은 X선관에서 가장 작은 열용량을 가진 영역",
      "heat_flow": [
        "1. 초점에서 열 발생",
        "2. 양극 본체로 전도 (conduction)",
        "3. 튜브 하우징으로 복사 (radiation)",
        "4. 하우징에서 주변 대기로 방출"
      ],
      "size_relationship": {
        "principle": "초점 크기가 클수록 열용량이 높아 더 높은 튜브 정격(tube rating) 가능",
        "doubling_effect": "초점 크기 2배 증가 → 튜브 정격 약 3배 증가",
        "source_ref": "radiopaedia_tube_rating"
      }
    },
    "mammography_focal_spot_specifications": {
      "large_focal_spot": {
        "nominal_size_mm": 0.3,
        "tube_current_mA": "100 ± 25",
        "use": "일반 접촉 촬영 (contact mammography)",
        "heat_capacity": "높음 - 고출력 가능"
      },
      "small_focal_spot": {
        "nominal_size_mm": 0.1,
        "tube_current_mA": "25 ± 10",
        "use": "확대 촬영 (magnification mammography)",
        "heat_capacity": "낮음 - 전류 제한으로 인해 노출 시간 증가",
        "limitation": "소초점은 튜브 전류를 제한하여 노출 시간이 길어짐"
      },
      "current_ratio": "대초점 대비 소초점 mA = 약 1/4 (100mA vs 25mA)",
      "source_ref": "fico2023_pmc, sprawls_mammo"
    },
    "anode_heat_capacity_specifications": {
      "mammography_typical": {
        "adequate_capacity_HU": "≥ 90,000 HU",
        "note": "대부분의 진료에 적합",
        "source_ref": "aapm_report29"
      },
      "low_capacity_warning": {
        "threshold_HU": "≤ 20,000 HU",
        "consequence": "고용량 촬영 시 노출 사이에 대기 시간 필요",
        "source_ref": "aapm_report29"
      },
      "general_comparison": {
        "mammography_kJ": "~200 kJ",
        "general_radiography_kJ": "~250 kJ",
        "angiography_kJ": "~750 kJ",
        "source_ref": "radiopaedia_tube_rating"
      }
    },
    "clinical_implications": {
      "magnification_dilemma": {
        "problem": "확대 촬영 시 소초점 필수 → mA 제한 → 선량 증가 어려움",
        "consequence_1": "노출 시간 증가 → 움직임 블러 위험",
        "consequence_2": "mAs 증가 제한 → 양자 노이즈 감소 한계",
        "consequence_3": "과열 시 초점 손상 → 영상 품질 저하"
      },
      "grainy_image_cause": {
        "mechanism": [
          "1. 소초점(0.1mm) 사용으로 mA가 25±10mA로 제한",
          "2. 동일 mAs 달성을 위해 노출 시간 증가 필요",
          "3. 열적 한계로 mAs 자체 증가도 제한",
          "4. 낮은 광자 수 → 양자 노이즈 증가 → '자글자글(grainy)' 영상"
        ],
        "key_insight": "선량을 높여도 소초점 열용량 한계로 mA 증가 불가 → 노이즈 개선 한계"
      },
      "blurry_edge_cause": {
        "mechanism": [
          "1. 노출 시간 증가 → 환자 움직임 블러",
          "2. 열적 스트레스 → 초점 크기 확대(focal spot blooming)",
          "3. 기하학적 언샤프니스 증가 → 경계 불명확"
        ]
      }
    },
    "heat_management_strategies": {
      "rotating_anode": {
        "benefit": "열 분산으로 정격 약 60% 증가",
        "mechanism": "초점 트랙이 넓어져 열이 분산됨"
      },
      "steep_anode_angle": {
        "mammography_angle_deg": "0-16 (effective)",
        "benefit": "동일 유효 초점 크기에서 더 높은 열 정격",
        "trade_off": "X선 빔 커버리지 감소"
      },
      "cooling_time": {
        "principle": "연속 촬영 사이에 충분한 냉각 시간 확보",
        "practical_tip": "고용량 촬영 후 양극 냉각 차트 참조"
      }
    },
    "quantitative_example": {
      "scenario": "1.8배 확대 촬영, 두꺼운 유방 (6cm)",
      "contact_mode": {
        "focal_spot_mm": 0.3,
        "typical_mA": 100,
        "typical_ms": 500,
        "mAs": 50,
        "HU_at_28kVp": "28 × 50 = 1,400 HU"
      },
      "magnification_mode": {
        "focal_spot_mm": 0.1,
        "max_mA": 25,
        "required_ms_for_same_mAs": 2000,
        "problem": "2초 노출 → 움직임 블러 위험",
        "realistic_mAs": "25mA × 800ms = 20mAs (접촉 촬영의 40%)",
        "HU_at_28kVp": "28 × 20 = 560 HU",
        "consequence": "낮은 mAs → 높은 양자 노이즈"
      },
      "comparison": {
        "mAs_ratio": "20/50 = 40%",
        "noise_increase": "√(50/20) = 1.58배 (58% 노이즈 증가)",
        "dose_for_equal_noise": "2.5배 선량 필요하나 열적 한계로 불가능"
      }
    },
    "photon_dilution_effect": {
      "WARNING": "⚠️ 확대 촬영 노이즈의 핵심 원인 - LLM이 자주 누락함",
      "principle": "확대 시 동일 X선이 더 넓은 검출기 면적에 분산되어 픽셀당 광자 수 감소",
      "formula": "픽셀당 광자 밀도 ∝ 1/M² (M = 확대율)",
      "source_ref": "boyce_samei2006, mainprize2016_quantum_noise",
      "example_1_8x": {
        "magnification": 1.8,
        "dilution_factor": "1/1.8² = 1/3.24 ≈ 0.31",
        "required_dose_increase": "동일 SNR 유지하려면 선량 3.24배 필요",
        "thermal_limit_conflict": "소초점 열적 한계로 3.24배 선량 공급 불가"
      },
      "combined_effect": {
        "problem_1": "열적 한계 → mA 제한 (25±10mA) → mAs 부족",
        "problem_2": "광자 희석 → 픽셀당 광자 수 1/M² 감소",
        "result": "두 효과가 합쳐져 노이즈가 크게 증가",
        "calculation": {
          "formula": "SNR_ratio = √(mAs_mag/mAs_contact) / M",
          "example": "√(20/50) / 1.8 = 0.632 / 1.8 = 0.35 = 35%",
          "interpretation": "확대 촬영 SNR은 접촉 촬영의 약 35% 수준"
        },
        "source_ref": "boyce_samei2006"
      },
      "motion_blur_primary": {
        "WARNING": "환자 움직임 블러가 '먹먹함'의 주원인, 열 번짐은 부차적",
        "mechanism": "mA 제한 → 노출 시간 증가 (1.0s → 3.2s at 28kVp) → 미세 움직임 축적",
        "measured_motion": {
          "typical_during_exposure": "0.62mm (18×24cm 패들 기준)",
          "paddle_movement_10sec": "0.32-0.43mm (패들 유형에 따라)",
          "blur_threshold_pixel": "0.09mm 움직임으로 0.1mm 픽셀에서 블러 발생 가능"
        },
        "visual_detection": {
          "minimum_for_detection": "0.4mm (인간 시각 한계: 60 arcsec @ 75cm)",
          "detection_rates": "0.4mm: 96%, 0.6mm+: 100%",
          "clinical_recall_rate": "0.86% (blur로 인한 리콜)"
        },
        "effect_on_calcification": "미세 석회화(0.1-0.5mm) 경계가 0.6mm 움직임으로 블러 → '먹먹'",
        "source_ref": "mackenzie2017_motion_blur, ma2014_patient_movement"
      },
      "practical_solutions": {
        "solution_1": {
          "description": "배율 감소: 1.8배 → 1.5배",
          "calculation": "1/1.5²=0.444 vs 1/1.8²=0.309 → 44% 더 많은 광자",
          "benefit": "SNR 개선 + 노출 시간 단축"
        },
        "solution_2": {
          "description": "Air-gap 활용: 그리드 제거",
          "measured_dose_reduction": "15-25% (<40mm 유방), 두꺼운 유방에서는 효과 감소",
          "caveat": "두꺼운 유방(>40mm)에서는 선량 절감 효과 제한적",
          "source_ref": "gennaro2007_grid_removal"
        },
        "solution_3": "최적 노출 매트릭스: 배율별 kVp/mAs 최적 조합 사전 정의",
        "solution_4": {
          "description": "kVp 증가: 28→35 kVp",
          "effect": "노출 시간 3.2s→1.0s (68% 감소)",
          "benefit": "motion blur 대폭 개선",
          "source_ref": "young2001_magnification_dose"
        },
        "trade_off": "배율 감소 시 공간 해상도 감소 vs 노이즈 감소 트레이드오프"
      }
    }
  },
  "formulas": {
    "heat_unit_single_phase": {
      "formula": "HU = kVp × mA × s",
      "source_ref": "radiopaedia_tube_rating"
    },
    "heat_unit_three_phase": {
      "formula": "HU = 1.35 × kVp × mA × s",
      "source_ref": "radiopaedia_tube_rating"
    },
    "power": {
      "formula": "P (W) = w × kVp × mA (w = waveform factor)",
      "source_ref": "radiopaedia_tube_rating"
    },
    "noise_vs_dose": {
      "formula": "Noise ∝ 1/√(mAs)",
      "derivation": "Poisson statistics: σ = √N, SNR = N/σ = √N",
      "source_ref": "mainprize2016_quantum_noise"
    },
    "focal_spot_doubling": {
      "formula": "2× focal spot size → ~3× tube rating",
      "source_ref": "radiopaedia_tube_rating"
    },
    "photon_dilution": {
      "formula": "픽셀당 광자 밀도 ∝ 1/M² (확대 시 광자 희석)",
      "derivation": "Inverse square law applied to detector plane",
      "source_ref": "boyce_samei2006"
    },
    "magnification_snr": {
      "formula": "SNR_ratio = √(mAs_mag/mAs_contact) / M",
      "derivation": "SNR ∝ √(photons), photons ∝ mAs/M²",
      "source_ref": "boyce_samei2006"
    },
    "required_dose_for_equal_snr": {
      "formula": "Dose_mag = Dose_contact × M²",
      "example": "1.8x 확대: 3.24배 선량 필요",
      "source_ref": "boyce_samei2006"
    }
  },
  "common_misconceptions": {
    "WARNING": "다음은 LLM이 자주 잘못 설명하는 열용량 관련 오류입니다.",
    "misconception_1_dose_always_helps": {
      "WRONG": "확대 촬영에서 선량을 높이면 노이즈가 줄어든다",
      "CORRECT": "소초점의 열적 한계(25±10mA)로 인해 mAs 증가에 물리적 한계가 있음",
      "physics_proof": "mAs를 2배 높이려면 노출 시간 2배 필요 → 움직임 블러 + 초점 과열 위험"
    },
    "misconception_2_small_focal_better": {
      "WRONG": "소초점은 항상 더 좋은 영상을 만든다",
      "CORRECT": "소초점은 기하학적 선명도는 높지만, 열적 제한으로 양자 노이즈가 증가할 수 있음",
      "trade_off": "해상도 ↑ vs 노이즈 ↑ 트레이드오프"
    },
    "misconception_3_target_material": {
      "WRONG": "X선관 타겟은 알루미늄, 티타늄 등으로 만들어진다",
      "CORRECT": "맘모그래피 X선관 타겟은 Mo(몰리브덴), Rh(로듐), W(텅스텐)으로 제작",
      "reason": "고융점 + 적절한 특성 X선 에너지 필요"
    },
    "misconception_4_temperature_calculation": {
      "WRONG": "초점 열용량 계산 시 모든 열이 초점에 축적된다고 가정 → 수십만도 온도 상승 계산",
      "CORRECT": "회전 양극(rotating anode)이 열을 초점 트랙 전체로 분산, 열전도로 양극 본체로 전달",
      "realistic_values": {
        "focal_spot_temperature": "2,000~2,700°C (노출 중)",
        "anode_assembly_temperature": "~1,000°C (연속 노출 후)",
        "tungsten_melting_point": "3,422°C"
      },
      "physics_proof": "초점 트랙 전체 길이 = 2πr (r = 양극 반경), 회전 속도로 열 분산",
      "source_ref": "radiopaedia_anode, sprawls_xray_heat"
    },
    "misconception_5_magnification_noise": {
      "WRONG": "확대 촬영 노이즈는 열용량 한계만의 문제다",
      "CORRECT": "열용량 한계(mA 제한) + 광자 희석(1/M²) 두 효과가 복합 작용",
      "physics_proof": "1.8배 확대: (1) mAs 40% 제한 + (2) 광자 밀도 31% 희석 → 실효 SNR 대폭 감소"
    }
  },
  "clinical_relevance": {
    "magnification_quality": "확대 촬영의 '자글자글' 영상은 소초점 열적 한계로 인한 mAs 부족이 원인",
    "exposure_time": "소초점 사용 시 노출 시간 4배 증가 가능 → 움직임 블러 위험",
    "dose_optimization": "mAs 증가 대신 검출기 효율(DQE) 개선이 더 효과적인 해결책",
    "equipment_selection": "고용량 시설은 ≥90,000 HU 양극 열용량 필요"
  },
  "sources": [
    {
      "id": "fico2023_pmc",
      "citation": "Körner M, Weber CH, Wirth S, et al. Breast Imaging Physics in Mammography (Part I). J Clin Med. 2023;12(21):6714.",
      "pmid": "37959173",
      "pmc": "PMC10606465",
      "doi": "10.3390/jcm12216714",
      "url": "https://pmc.ncbi.nlm.nih.gov/articles/PMC10606465/",
      "type": "Review Article",
      "key_data": "0.3mm focal spot: 100±25mA, 0.1mm focal spot: 25±10mA"
    },
    {
      "id": "radiopaedia_tube_rating",
      "citation": "Radiopaedia.org. Tube rating. Radiology Reference Article.",
      "url": "https://radiopaedia.org/articles/tube-rating",
      "type": "Educational Reference",
      "key_data": "HU formula, focal spot size doubling → 3× tube rating"
    },
    {
      "id": "aapm_report29",
      "citation": "AAPM Report No. 29: Equipment Requirements and Quality Control for Mammography. American Association of Physicists in Medicine. 1990.",
      "url": "https://www.aapm.org/pubs/reports/rpt_29.pdf",
      "type": "Technical Report",
      "key_data": "Mammography anode heat capacity ≥90,000 HU recommended"
    },
    {
      "id": "sprawls_xray_heat",
      "citation": "Sprawls P. X-Ray Tube Heating and Cooling. The Physical Principles of Medical Imaging.",
      "url": "http://www.sprawls.org/ppmi2/XRAYHEAT/",
      "type": "Educational Resource",
      "key_data": "Focal spot area has smallest heat capacity in X-ray tube"
    },
    {
      "id": "sprawls_mammo",
      "citation": "Sprawls P. The Physics and Technology of Mammography.",
      "url": "http://www.sprawls.org/resources/MAMMO/module.htm",
      "type": "Educational Resource"
    },
    {
      "id": "feig1987",
      "citation": "Feig SA. Mammography equipment: principles, features, selection. Radiol Clin North Am. 1987;25(5):897-911.",
      "pmid": "3306772",
      "type": "Review Article",
      "key_data": "≥90,000 HU adequate, ≤20,000 HU may require cooling delays",
      "CORRECTION_NOTE": "이전 저자 'Barnes GT'는 잘못됨. 실제 저자: Feig SA. source ID도 barnes1991에서 feig1987로 수정"
    },
    {
      "id": "boyce_samei2006",
      "citation": "Boyce SJ, Samei E. Imaging properties of digital magnification radiography. Med Phys. 2006;33(6):1877-1888.",
      "pmid": "16696475",
      "doi": "10.1118/1.2197231",
      "url": "https://pubmed.ncbi.nlm.nih.gov/16696475/",
      "type": "Research Article",
      "key_data": "Magnification SNR: 0.3mm focal spot crossover point, optimal magnification improves SNR² by 1.2x",
      "CORRECTION_NOTE": "이전 제목 'An experimental comparison of detector performance for computed radiography systems'는 완전히 다른 논문 제목. 실제 제목: 'Imaging properties of digital magnification radiography'. 저자도 Samei E, Flynn MJ → Boyce SJ, Samei E로 수정"
    },
    {
      "id": "mackenzie2017_motion_blur",
      "citation": "Mackenzie A, et al. Blurred digital mammography images: an analysis of technical recall and observer detection performance. Br J Radiol. 2017;90(1078):20170106.",
      "pmid": "28749174",
      "pmc": "PMC5601529",
      "url": "https://pmc.ncbi.nlm.nih.gov/articles/PMC5601529/",
      "type": "Research Article",
      "key_data": "0.4mm minimum motion for visual blur detection, blur in up to 20% of FFDM"
    },
    {
      "id": "young2001_magnification_dose",
      "citation": "Young KC. Image quality and dose in film-screen magnification mammography. Br J Radiol. 2001;74(878):146-50.",
      "pmid": "11271899",
      "url": "https://pubmed.ncbi.nlm.nih.gov/11271899/",
      "type": "Research Article",
      "key_data": "28kVp→35kVp reduces exposure time 3.2s→1.0s without affecting detection"
    },
    {
      "id": "ma2014_patient_movement",
      "citation": "Ma WK, et al. Extra patient movement during mammographic imaging: an experimental study. Br J Radiol. 2014;87(1044):20140241.",
      "pmid": "25348098",
      "pmc": "PMC4243204",
      "url": "https://pmc.ncbi.nlm.nih.gov/articles/PMC4243204/",
      "type": "Research Article",
      "key_data": "Paddle movement up to 1.5mm during exposure, linear relationship with compression force"
    },
    {
      "id": "mainprize2016_quantum_noise",
      "citation": "Mainprize JG, et al. A comprehensive model for quantum noise characterization in digital mammography. Med Phys. 2016;43(3):1514.",
      "pmid": "26895467",
      "url": "https://pubmed.ncbi.nlm.nih.gov/26895467/",
      "type": "Research Article",
      "key_data": "Cascaded systems analysis for quantum noise propagation in mammography detectors"
    },
    {
      "id": "gennaro2007_grid_removal",
      "citation": "Gennaro G, Katz L, Souchay H, et al. Grid removal and impact on population dose in full-field digital mammography. Med Phys. 2007;34(2):547-555.",
      "pmid": "17388172",
      "doi": "10.1118/1.2426402",
      "url": "https://pubmed.ncbi.nlm.nih.gov/17388172/",
      "type": "Research Article",
      "key_data": "15-25% dose reduction for breasts <40mm with grid removal (동일 CNR 조건)",
      "CORRECTION_NOTE": "이전 PMID 17279966은 완전히 다른 논문(vaccine dissemination). 올바른 PMID: 17388172. 선량 감소율도 ~8%→15-25%(<40mm)로 수정"
    },
    {
      "id": "radiopaedia_anode",
      "citation": "Radiopaedia.org. Anode (x-ray tube). Radiology Reference Article.",
      "url": "https://radiopaedia.org/articles/anode-x-ray-tube",
      "type": "Educational Reference",
      "key_data": "Focal spot temperature 2,500°C during exposure, anode assembly ~1,000°C"
    }
  ]
}
